# gmail imap mail settings

# remove mailboxes from the other account, so they won't appear on the sidebar
unmailboxes *

# you need to unset all the variables not used here but defined on the other
# account. Otherwise they'll affect this one, and that's not good
unset signature
unset smtp_authenticators 
# unset record as gmail is already saving sent messages in the Sent mailbox
unset record

## Receive options
# Apparently, only gmail requires the full mail address
set hostname= $my_hostname_gmail
set imap_user=$my_email_address_gmail
set imap_pass=$my_pass_gmail
# folder (ideally a server!)
set folder = "imaps://imap.gmail.com:993"
# spoolfile (where new e-mail arrives). '+' indicates folder path
set spoolfile = "+INBOX"
# Specify where to save and/or look for postponed messages.
set postponed = +[Gmail]/Drafts
# Store messages locally to speed things up, like searching message bodies.
# Can be the same folder as header_cache.
# This will cost important disk usage according to your e-mail amount.
set message_cachedir = "~/.cache/neomutt/gmail/bodies"
# Trusted certificates 
set certificate_file ="~/.neomutt/certificates"

### gmail imap SMTPS settings
set realname = $my_name
set from = $imap_user
set use_from = yes
set smtp_url = "smtps://$imap_user:$imap_pass@smtp.gmail.com:465/"
# Forces encryption connection to servers
set ssl_force_tls = yes
# No idea what move is: commented
#set move = no 

## Hook -- IMPORTANT!
account-hook gmail.com 'set imap_user=$imap_user imap_pass=$imap_pass'
